 &FCI NORB=  30,NELEC= 8,MS2=0,
  ORBSYM=1,1,1,1,1,1,1,1,1,1,1,1,1,1,1,1,1,1,1,1,1,1,1,1,1,1,1,1,1,1,
  ISYM=1,
 &END
 0.3769051927408927    1    1    1    1
 0.1201447681526109    2    1    2    1
 0.3664272578713464    2    2    1    1
 0.3964656790745069    2    2    2    2
 -1.711043371440675e-15    3    1    1    1
 0.1201447681526107    3    1    3    1
 2.12520386979221e-13    3    2    2    2
 0.02866345293418731    3    2    3    2
 0.3664272578713462    3    3    1    1
 0.3211082661350914    3    3    2    2
 1.038244242869452e-15    3    3    3    1
 -2.123877417716653e-13    3    3    3    2
 0.3964656790745067    3    3    3    3
 0.04615913078529928    4    1    2    2
 9.427391286216031e-13    4    1    3    2
 -0.04615913078529925    4    1    3    3
 0.05663986432382317    4    1    4    1
 0.08535461834166783    4    2    2    1
 1.7274855206629e-12    4    2    3    1
 0.0796135377172164    4    2    4    2
 1.273566726776789e-15    4    3    1    1
 1.727508306357188e-12    4    3    2    1
 -0.08535461834166795    4    3    3    1
 -1.163900596783879e-15    4    3    3    3
 0.07961353771721652    4    3    4    3
 0.3395309132335645    4    4    1    1
 0.3361662067985451    4    4    2    2
 0.3361662067985447    4    4    3    3
 0.334079848756322    4    4    4    4
 -7.43435569966929e-13    5    1    2    2
 0.03883679866270871    5    1    3    2
 7.43374846383658e-13    5    1    3    3
 1.342418753883017e-14    5    1    4    1
 0.05295467215241176    5    1    5    1
 -1.267536844186837e-15    5    2    1    1
 -1.464068960301149e-12    5    2    2    1
 0.0756173995648363    5    2    3    1
 2.024965892546023e-14    5    2    4    2
 -0.03628530407908776    5    2    4    3
 0.06787032059720874    5    2    5    2
 0.0756173995648364    5    3    2    1
 1.464247256650252e-12    5    3    3    1
 1.071308366319686e-15    5    3    3    2
 0.03628530407908761    5    3    4    2
 1.995648233376326e-14    5    3    4    3
 0.06787032059720877    5    3    5    3
 3.291042725173037e-14    5    4    1    1
 1.986654151435153e-14    5    4    2    2
 1.990969463533134e-14    5    4    3    3
 -2.138147033145496e-13    5    4    4    4
 0.009024591567029549    5    4    5    4
 0.3315047709824788    5    5    1    1
 -1.321618882826299e-15    5    5    2    1
 0.3268015576337291    5    5    2    2
 0.326801557633729    5    5    3    3
 0.2957092176662375    5    5    4    4
 -1.103862994597813e-15    5    5    5    3
 2.607743029389701e-13    5    5    5    4
 0.3223910580604799    5    5    5    5
 0.002775616976680586    6    1    2    1
 -0.0006027284184700881    6    1    3    1
 -0.01563984115397575    6    1    4    2
 -0.00339620949293169    6    1    4    3
 5.695182680458933e-15    6    1    4    4
 -1.083232272684941e-15    6    1    5    1
 -0.004360738400510667    6    1    5    2
 0.0200815809627489    6    1    5    3
 -6.891236866735762e-15    6    1    5    5
 0.01873535564767705    6    1    6    1
 0.002123195524346652    6    2    1    1
 -0.02166439493719764    6    2    2    2
 -1.452607012612514e-15    6    2    3    1
 -0.004715515549661761    6    2    3    2
 0.02410767037450394    6    2    3    3
 -0.0283706206186744    6    2    4    1
 6.966924363022752e-15    6    2    4    2
 -0.01069172694033197    6    2    4    4
 -0.006537891780473841    6    2    5    1
 -6.287337278253128e-15    6    2    5    3
 -0.001419039342623165    6    2    5    4
 0.01366241800665239    6    2    5    5
 -1.149499936724987e-14    6    2    6    1
 0.02560484560271697    6    2    6    2
 -0.0004610543498234449    6    3    1    1
 -1.253961003254175e-15    6    3    2    1
 -0.005235008346861912    6    3    2    2
 1.788639470033088e-15    6    3    3    1
 0.0217153606991522    6    3    3    2
 0.004704448275851082    6    3    3    3
 -0.006160712894500746    6    3    4    1
 -8.074320679597997e-15    6    3    4    3
 0.002321720800895875    6    3    4    4
 0.03010756231093298    6    3    5    1
 -5.876533923456987e-15    6    3    5    2
 -0.006534800035584312    6    3    5    4
 -0.002966809782296177    6    3    5    5
 1.842221568304699e-15    6    3    6    1
 -0.001588902743532995    6    3    6    2
 0.02381911591569778    6    3    6    3
 -1.190471410590191e-15    6    4    1    1
 -0.05865428814915288    6    4    2    1
 1.222931848088665e-14    6    4    2    2
 -0.0127368461259445    6    4    3    1
 -1.458310344065966e-14    6    4    3    3
 1.67094885422041e-14    6    4    4    1
 -0.04630898979213807    6    4    4    2
 0.01005605038947824    6    4    4    3
 -0.008044863877060488    6    4    5    2
 -0.03704730035668305    6    4    5    3
 0.001041182707723587    6    4    6    1
 -1.363159937117324e-14    6    4    6    2
 -2.671758869810976e-15    6    4    6    3
 0.04147505730096536    6    4    6    4
 -2.48575168529129e-15    6    5    1    1
 -0.01389129699195705    6    5    2    1
 -1.40641336070783e-15    6    5    2    2
 0.06397063515389342    6    5    3    1
 -1.257416091603462e-14    6    5    3    2
 -0.009377526840470472    6    5    4    2
 -0.04318432962579237    6    5    4    3
 -1.770038058514953e-14    6    5    5    1
 0.04716329473687143    6    5    5    2
 -0.01024156369070019    6    5    5    3
 -0.0027201971337048    6    5    6    1
 2.314652887687957e-15    6    5    6    2
 -1.474021481290185e-14    6    5    6    3
 7.95790736853231e-15    6    5    6    4
 0.04962941604758703    6    5    6    5
 0.2718306713080962    6    6    1    1
 -8.296262651967125e-14    6    6    2    1
 0.2746753015690508    6    6    2    2
 1.671217187479063e-14    6    6    3    1
 -0.002633005432289036    6    6    3    2
 0.2680772008527326    6    6    3    3
 0.004185782455263798    6    6    4    1
 -6.406040683504121e-14    6    6    4    2
 -1.313064442481025e-14    6    6    4    3
 0.2639987113545821    6    6    4    4
 -0.003716135109230497    6    6    5    1
 1.154591319974197e-14    6    6    5    2
 -6.016129764181235e-14    6    6    5    3
 2.744663015903409e-14    6    6    5    4
 0.2634697510187481    6    6    5    5
 -3.272444550067053e-15    6    6    6    1
 -0.0007148354816508399    6    6    6    2
 -0.00324189327884028    6    6    6    3
 6.102364820608461e-14    6    6    6    4
 2.943041677956115e-14    6    6    6    5
 0.2446923728861725    6    6    6    6
 0.0006027284184699759    7    1    2    1
 0.002775616976679721    7    1    3    1
 1.374349838028834e-15    7    1    3    2
 1.078643306733141e-15    7    1    3    3
 -0.003396209492932042    7    1    4    2
 0.01563984115397803    7    1    4    3
 3.05328370684831e-15    7    1    4    4
 1.628310983757288e-15    7    1    5    1
 0.02008158096275027    7    1    5    2
 0.004360738400510937    7    1    5    3
 -2.092719897061667e-15    7    1    5    5
 -3.920331876344052e-15    7    1    6    2
 -5.940601108396863e-15    7    1    6    3
 0.0004745660265844866    7    1    6    4
 0.005968025648737674    7    1    6    5
 0.01873535564768055    7    1    7    1
 0.000461054349823628    7    2    1    1
 -0.004704448275850973    7    2    2    2
 2.642821368508996e-15    7    2    3    1
 0.02171536069915402    7    2    3    2
 0.0052350083468626    7    2    3    3
 -0.00616071289450116    7    2    4    1
 3.260961120590441e-15    7    2    4    2
 -1.308126652295264e-15    7    2    4    3
 -0.002321720800895825    7    2    4    4
 0.03010756231093543    7    2    5    1
 2.069961107819379e-15    7    2    5    2
 -1.645346582292581e-15    7    2    5    3
 0.006534800035584563    7    2    5    4
 0.002966809782297121    7    2    5    5
 -4.470176586885446e-15    7    2    6    1
 0.000406963463557874    7    2    6    2
 0.01340228035250453    7    2    6    3
 -4.295758023258766e-15    7    2    6    4
 -9.856940510670097e-15    7    2    6    5
 -0.002590402891784558    7    2    6    6
 0.02381911591570125    7    2    7    2
 0.00212319552434499    7    3    1    1
 2.423203016948635e-15    7    3    2    1
 0.02410767037450487    7    3    2    2
 1.831605055320807e-15    7    3    3    1
 0.004715515549662131    7    3    3    2
 -0.02166439493720189    7    3    3    3
 0.02837062061867745    7    3    4    1
 -3.487325460479926e-15    7    3    4    3
 -0.01069172694033437    7    3    4    4
 0.006537891780474325    7    3    5    1
 -1.660434549526332e-15    7    3    5    2
 1.977813139042883e-15    7    3    5    3
 -0.001419039342623356    7    3    5    4
 0.01366241800665256    7    3    5    5
 -4.147061064493306e-15    7    3    6    1
 -0.006430276588940501    7    3    6    2
 -0.000406963463558298    7    3    6    3
 9.051823165418117e-15    7    3    6    4
 -3.973855945273951e-15    7    3    6    5
 0.003715005579683581    7    3    6    6
 -4.572523374798458e-15    7    3    7    1
 0.00158890274353315    7    3    7    2
 0.02560484560272197    7    3    7    3
 -1.170527813323704e-15    7    4    1    1
 -0.01273684612594565    7    4    2    1
 5.331800246818747e-15    7    4    2    2
 0.05865428814915679    7    4    3    1
 -5.18404961757043e-15    7    4    3    3
 7.338148350952787e-15    7    4    4    1
 -0.01005605038947898    7    4    4    2
 -0.04630898979214126    7    4    4    3
 0.03704730035668482    7    4    5    2
 -0.008044863877061032    7    4    5    3
 0.0004745660265843468    7    4    6    1
 -5.75045763669332e-15    7    4    6    2
 3.410504465310732e-15    7    4    6    3
 0.03247699973302344    7    4    6    5
 2.664925178252131e-14    7    4    6    6
 -0.001041182707724551    7    4    7    1
 6.070504285600302e-15    7    4    7    3
 0.04147505730096909    7    4    7    4
 3.804939648673312e-15    7    5    1    1
 0.06397063515389775    7    5    2    1
 3.513821495864769e-15    7    5    2    2
 0.01389129699195848    7    5    3    1
 -4.118506226605665e-15    7    5    3    2
 3.718489000566773e-15    7    5    3    3
 0.0431843296257949    7    5    4    2
 -0.009377526840471577    7    5    4    3
 2.239611063377182e-15    7    5    4    4
 -6.97266587186681e-15    7    5    5    1
 0.0102415636907016    7    5    5    2
 0.04716329473687478    7    5    5    3
 2.397793568388217e-15    7    5    5    5
 0.0059680256487381    7    5    6    1
 -2.423308628826856e-15    7    5    6    2
 -5.899248439095936e-15    7    5    6    3
 -0.03247699973302442    7    5    6    4
 -5.906122059001063e-14    7    5    6    6
 0.00272019713370499    7    5    7    1
 -5.2195553196287e-15    7    5    7    2
 7.587453915089784e-15    7    5    7    4
 0.04962941604759244    7    5    7    5
 -2.699604930050509e-14    7    6    2    1
 0.001503691146311545    7    6    2    2
 -3.768561947985713e-14    7    6    3    1
 0.005776729840067938    7    6    3    2
 -0.001503691146311599    7    6    3    3
 0.001907859333929041    7    6    4    1
 -2.061327520533666e-14    7    6    4    2
 2.950121013222238e-14    7    6    4    3
 0.00815308176400845    7    6    5    1
 -2.716112805614792e-14    7    6    5    2
 -1.970317758922124e-14    7    6    5    3
 -1.505236032306354e-15    7    6    6    1
 -0.002347650307336085    7    6    6    2
 0.004832902419899895    7    6    6    3
 2.822958364418804e-14    7    6    6    4
 -3.194543875051241e-14    7    6    6    5
 -0.0005020469447875127    7    6    6    6
 -1.260048681620686e-15    7    6    7    1
 0.004832902419899396    7    6    7    2
 0.002347650307336727    7    6    7    3
 -2.107199832249191e-14    7    6    7    4
 -2.820153791939451e-14    7    6    7    5
 0.006114011214980032    7    6    7    6
 0.271830671308109    7    7    1    1
 -5.280163745315317e-15    7    7    2    1
 0.2680772008527442    7    7    2    2
 -3.385074786288048e-14    7    7    3    1
 0.002633005432289357    7    7    3    2
 0.2746753015690641    7    7    3    3
 -0.004185782455264857    7    7    4    1
 -4.40995992586661e-15    7    7    4    2
 2.608618135593497e-14    7    7    4    3
 0.2639987113545927    7    7    4    4
 0.003716135109230663    7    7    5    1
 -2.460224940525344e-14    7    7    5    2
 -3.905205853029598e-15    7    7    5    3
 2.697438214212917e-14    7    7    5    4
 0.2634697510187583    7    7    5    5
 0.003715005579685534    7    7    6    2
 0.002590402891785053    7    7    6    3
 4.538190429587691e-15    7    7    6    4
 -2.876812669952423e-14    7    7    6    5
 0.2342096392637934    7    7    6    6
 -1.820885467334584e-15    7    7    7    1
 0.003241893278841335    7    7    7    2
 -0.0007148354816516757    7    7    7    3
 -2.451885758216061e-14    7    7    7    4
 -9.345409248006451e-15    7    7    7    5
 0.0005020469447854963    7    7    7    6
 0.2446923728861853    7    7    7    7
 -0.002583530891116204    8    1    1    1
 -5.207320771235495e-15    8    1    2    1
 -0.003114161416823941    8    1    2    2
 4.540111244419183e-14    8    1    3    1
 -5.870882048735461e-15    8    1    3    2
 -0.003114161416839644    8    1    3    3
 9.392996835576803e-15    8    1    4    1
 -3.461159526133774e-14    8    1    4    2
 -2.056927404005801e-14    8    1    4    3
 -0.01158751547744448    8    1    4    4
 -7.711273427682463e-15    8    1    5    1
 3.380346567141798e-14    8    1    5    2
 2.989587641372799e-14    8    1    5    3
 3.158998025988386e-13    8    1    5    4
 0.007512503227846452    8    1    5    5
 2.470848437646634e-14    8    1    6    1
 0.007305715910109016    8    1    6    2
 -0.001586444611802573    8    1    6    3
 3.367585899440473e-15    8    1    6    4
 1.508988259477659e-14    8    1    6    5
 -0.0003846070971993073    8    1    6    6
 1.394806217552387e-14    8    1    7    1
 0.001586444611792899    8    1    7    2
 0.007305715910116106    8    1    7    3
 1.318401028826035e-14    8    1    7    4
 1.197038881100811e-14    8    1    7    5
 -0.0003846070972010009    8    1    7    7
 0.006026877519120671    8    1    8    1
 -1.352642685559876e-14    8    2    1    1
 -0.003908677450619042    8    2    2    1
 -5.708167909875317e-14    8    2    2    2
 4.689086991920253e-14    8    2    3    1
 2.124415189706848e-14    8    2    3    2
 2.918476213990597e-14    8    2    3    3
 -5.294658523079668e-14    8    2    4    1
 -0.0125409828302533    8    2    4    2
 2.13413623876568e-14    8    2    4    3
 -3.260088866002945e-14    8    2    4    4
 2.753761932334709e-14    8    2    5    1
 2.324348708382309e-13    8    2    5    2
 0.007558595698996675    8    2    5    3
 2.340070643702335e-15    8    2    5    4
 1.267283680203111e-14    8    2    5    5
 0.01019736259428753    8    2    6    1
 3.413860425312868e-14    8    2    6    2
 1.39721147970842e-14    8    2    6    3
 0.006374675153812103    8    2    6    4
 -0.0008775150970417724    8    2    6    5
 -7.157337151020727e-15    8    2    6    6
 0.00221436901479699    8    2    7    1
 2.187969595709086e-14    8    2    7    2
 -7.224405329309509e-15    8    2    7    3
 0.001384268040979858    8    2    7    4
 0.004041033615481704    8    2    7    5
 3.412604421901719e-15    8    2    7    7
 3.084157505236008e-14    8    2    8    1
 0.008318385513989912    8    2    8    2
 7.976345734226487e-14    8    3    1    1
 -6.670413123153296e-14    8    3    2    1
 7.016459532026502e-14    8    3    2    2
 -0.003908677450643806    8    3    3    1
 3.541087751664822e-14    8    3    3    2
 7.725608051937707e-14    8    3    3    3
 -3.591186275765715e-15    8    3    4    1
 1.310743809846545e-14    8    3    4    2
 0.0125409828302759    8    3    4    3
 5.294368917260139e-14    8    3    4    4
 4.859027618188486e-14    8    3    5    1
 0.007558595698988009    8    3    5    2
 -2.497238367296963e-13    8    3    5    3
 -1.039209364728989e-14    8    3    5    4
 6.067988055065024e-14    8    3    5    5
 -0.002214369014802957    8    3    6    1
 2.832753789215877e-14    8    3    6    3
 0.001384268040989909    8    3    6    4
 0.004041033615474721    8    3    6    5
 2.474827061171848e-14    8    3    6    6
 0.01019736259429207    8    3    7    1
 2.206956449560954e-14    8    3    7    2
 1.204368570387127e-14    8    3    7    3
 -0.006374675153821605    8    3    7    4
 0.0008775150970299596    8    3    7    5
 9.529535880562753e-15    8    3    7    6
 2.743375755854866e-14    8    3    7    7
 3.754056742102971e-15    8    3    8    1
 -1.23117758380586e-15    8    3    8    2
 0.008318385513996902    8    3    8    3
 2.379299995642163e-14    8    4    1    1
 -9.742573762755633e-14    8    4    2    1
 -0.01951904379526347    8    4    2    2
 7.230781055346622e-15    8    4    3    1
 1.517760827714419e-13    8    4    3    2
 0.01951904379530896    8    4    3    3
 -0.02444002052656478    8    4    4    1
 -7.751023913873263e-14    8    4    4    2
 -5.724797555366869e-15    8    4    4    3
 2.105483538454439e-14    8    4    4    4
 7.797260601866309e-13    8    4    5    1
 1.106481043043659e-14    8    4    5    2
 -5.647907398482444e-14    8    4    5    3
 1.523142246755129e-14    8    4    5    5
 4.404484837888025e-15    8    4    6    1
 0.01405843168126813    8    4    6    2
 0.003052804607782083    8    4    6    3
 4.452318406628342e-14    8    4    6    4
 2.280131159553976e-14    8    4    6    5
 -0.005366132887354783    8    4    6    6
 2.345809882798046e-15    8    4    7    1
 0.003052804607780993    8    4    7    2
 -0.01405843168127253    8    4    7    3
 2.19045315064681e-14    8    4    7    4
 -4.273532943192501e-14    8    4    7    5
 -0.002445857333455787    8    4    7    6
 0.005366132887382861    8    4    7    7
 -5.093193722159934e-15    8    4    8    1
 3.562850681098429e-14    8    4    8    2
 -4.794599410236833e-15    8    4    8    3
 0.01574902654025495    8    4    8    4
 -1.921822950471691e-14    8    5    1    1
 3.5076762204709e-14    8    5    2    1
 3.092490854325663e-13    8    5    2    2
 9.615402751309814e-14    8    5    3    1
 0.01614708782651376    8    5    3    2
 -3.453740983009533e-13    8    5    3    3
 8.035942821374646e-13    8    5    4    1
 1.535435675778317e-14    8    5    4    2
 -6.28470407645324e-14    8    5    4    3
 -1.302847159753142e-14    8    5    4    4
 0.02315587421593586    8    5    5    1
 7.103033668985947e-14    8    5    5    2
 2.678698996590512e-14    8    5    5    3
 -1.587650459601474e-14    8    5    5    5
 2.805222233316521e-15    8    5    6    1
 -0.003270096510942383    8    5    6    2
 0.01505907986200071    8    5    6    3
 -1.643043382145416e-14    8    5    6    4
 5.258485074281388e-14    8    5    6    5
 -0.003517732728334073    8    5    6    6
 1.246063888451371e-14    8    5    7    1
 0.01505907986200192    8    5    7    2
 0.003270096510938922    8    5    7    3
 4.140059688097289e-14    8    5    7    4
 2.354479234486659e-14    8    5    7    5
 0.007717793276143281    8    5    7    6
 0.003517732728318523    8    5    7    7
 -2.444694474851704e-15    8    5    8    1
 6.333165100042195e-15    8    5    8    2
 3.012561130089411e-14    8    5    8    3
 9.994692735373695e-15    8    5    8    4
 0.0174403539549215    8    5    8    5
 9.239530876550131e-14    8    6    1    1
 0.0506534048958324    8    6    2    1
 9.752249417663705e-14    8    6    2    2
 -0.01099944512691666    8    6    3    1
 8.104491457173782e-14    8    6    3    3
 1.029827290430921e-14    8    6    4    1
 0.03870286501135135    8    6    4    2
 0.008404371648162275    8    6    4    3
 7.676084296544636e-14    8    6    4    4
 -3.175181523853329e-15    8    6    5    1
 -0.007867980085773435    8    6    5    2
 0.03623273504822905    8    6    5    3
 2.155898657903718e-15    8    6    5    4
 7.501694044974534e-14    8    6    5    5
 0.002209130155891664    8    6    6    1
 -4.05119851853721e-15    8    6    6    2
 -1.081227509888567e-14    8    6    6    3
 -0.03242010719177132    8    6    6    4
 -0.01648194402787141    8    6    6    5
 -1.783591908641192e-14    8    6    6    6
 -5.315812268783413e-14    8    6    7    1
 -2.489833254174104e-15    8    6    7    2
 9.460836697706247e-15    8    6    7    3
 -0.01477692755483601    8    6    7    4
 0.03616085888830187    8    6    7    5
 -1.256236932091664e-14    8    6    7    6
 2.336701148065411e-14    8    6    7    7
 2.289718174979898e-15    8    6    8    1
 -0.0007711842036963539    8    6    8    2
 0.0001674635366756687    8    6    8    3
 -6.335726795518218e-14    8    6    8    4
 -1.796200792820424e-14    8    6    8    5
 0.04477916471498913    8    6    8    6
 4.882341658572985e-14    8    7    1    1
 0.01099944512691208    8    7    2    1
 4.465942391789821e-14    8    7    2    2
 0.05065340489583388    8    7    3    1
 1.133462559468082e-14    8    7    3    2
 5.167923798712761e-14    8    7    3    3
 -4.6392362260537e-15    8    7    4    1
 0.008404371648161971    8    7    4    2
 -0.03870286501135277    8    7    4    3
 4.152625076438875e-14    8    7    4    4
 1.578373638014625e-14    8    7    5    1
 0.03623273504822732    8    7    5    2
 0.007867980085770599    8    7    5    3
 1.666242395238915e-15    8    7    5    4
 3.916337676444209e-14    8    7    5    5
 5.010992826142955e-14    8    7    6    1
 4.262005651199491e-15    8    7    6    2
 8.64414289508277e-15    8    7    6    3
 -0.0147769275548421    8    7    6    4
 0.03616085888829339    8    7    6    5
 1.065838639858699e-14    8    7    6    6
 0.00220913015589006    8    7    7    1
 1.416160654489291e-14    8    7    7    2
 0.03242010719176914    8    7    7    4
 0.01648194402787906    8    7    7    5
 -2.887806220420363e-14    8    7    7    6
 -4.392908528617875e-14    8    7    7    7
 9.830424951170381e-15    8    7    8    1
 -0.0001674635366855041    8    7    8    2
 -0.0007711842036996745    8    7    8    3
 1.785864507032608e-14    8    7    8    4
 6.616540404776363e-14    8    7    8    5
 2.417530844274894e-14    8    7    8    6
 0.04477916471494357    8    7    8    7
 0.2284251590913596    8    8    1    1
 1.244596385188408e-13    8    8    2    1
 0.2293487635371514    8    8    2    2
 1.184856703146353e-14    8    8    3    1
 0.229348763537153    8    8    3    3
 9.29496666701958e-14    8    8    4    2
 -1.555683472698222e-14    8    8    4    3
 0.2278794969498623    8    8    4    4
 2.212085108591343e-15    8    8    5    2
 8.7244565960313e-14    8    8    5    3
 2.160961770668539e-14    8    8    5    4
 0.2276478825342255    8    8    5    5
 7.398363305406943e-15    8    8    6    1
 0.0005622303865882233    8    8    6    2
 -0.0001220889750314799    8    8    6    3
 -8.12368591230889e-14    8    8    6    4
 -2.702886977674907e-14    8    8    6    5
 0.2184726178640538    8    8    6    6
 -1.965735540406557e-15    8    8    7    1
 0.0001220889750355751    8    8    7    2
 0.0005622303865917195    8    8    7    3
 1.172356039977744e-15    8    8    7    4
 7.90814645412572e-14    8    8    7    5
 -9.612748917474358e-15    8    8    7    6
 0.2184726178640216    8    8    7    7
 -7.760882398897462e-05    8    8    8    1
 -4.465515740916807e-15    8    8    8    2
 3.070020300310198e-15    8    8    8    3
 -6.244150774623509e-15    8    8    8    4
 -5.098191667249493e-15    8    8    8    5
 2.727013200619933e-13    8    8    8    6
 -1.636254993376494e-13    8    8    8    7
 0.2104605550723173    8    8    8    8
 -1.940610812275427e-15    9    1    1    1
 -0.03277859984712418    9    1    2    1
 -1.340885116441163e-15    9    1    2    2
 5.960587314401903e-06    9    1    3    1
 -1.9967469863839e-15    9    1    3    3
 -0.01983291463591961    9    1    4    2
 -3.60649428525201e-06    9    1    4    3
 3.492514528964256e-06    9    1    5    2
 -0.01920611485471259    9    1    5    3
 -3.336339868174816e-15    9    1    5    5
 -0.001731353587886144    9    1    6    1
 -1.096642378108115e-15    9    1    6    2
 0.00940985578670157    9    1    6    4
 0.002303109379187095    9    1    6    5
 -0.0003756357537148526    9    1    7    1
 -2.2725092916657e-15    9    1    7    3
 0.002045152888450571    9    1    7    4
 -0.01059672714020152    9    1    7    5
 -1.946198247968162e-15    9    1    7    7
 0.0009410648802937959    9    1    8    2
 -1.71126856923938e-07    9    1    8    3
 2.405037013713927e-14    9    1    8    4
 -2.266236419740011e-14    9    1    8    5
 -0.002506863033710071    9    1    8    6
 -0.0005438908561670701    9    1    8    7
 -1.759360761553645e-14    9    1    8    8
 0.01965420162242935    9    1    9    1
 -0.0581665339914899    9    2    1    1
 -0.06321043699005886    9    2    2    2
 1.733312391625228e-06    9    2    3    2
 -0.04487444991354284    9    2    3    3
 -0.01065634495188998    9    2    4    1
 1.959425238767858e-15    9    2    4    2
 -0.04262475650390758    9    2    4    4
 2.159925576159445e-06    9    2    5    1
 -2.356925730014603e-15    9    2    5    3
 2.880439983628118e-08    9    2    5    4
 -0.04043510764637093    9    2    5    5
 -1.658042992273857e-15    9    2    6    1
 0.002150595663280182    9    2    6    2
 0.0009907662031656849    9    2    6    3
 -0.01922448710853721    9    2    6    6
 0.0004679779580396413    9    2    7    2
 -0.004558248713064337    9    2    7    3
 -2.716937829018187e-15    9    2    7    5
 -0.0001336940462247681    9    2    7    6
 -0.01863680931429829    9    2    7    7
 0.001004287500171246    9    2    8    1
 1.453784631155477e-14    9    2    8    2
 -2.810064948783035e-14    9    2    8    3
 0.001465374124107079    9    2    8    4
 1.898725779728244e-07    9    2    8    5
 -2.837055915133858e-14    9    2    8    6
 -2.36490832549568e-14    9    2    8    7
 -0.006881228133146729    9    2    8    8
 1.298010969594405e-15    9    2    9    1
 0.03307638944445449    9    2    9    2
 1.057722740911429e-05    9    3    1    1
 8.160143435757176e-06    9    3    2    2
 -1.401168320297338e-15    9    3    3    1
 -0.009531871757707318    9    3    3    2
 1.149443024727292e-05    9    3    3    3
 -1.937791200698333e-06    9    3    4    1
 -1.066803045032059e-15    9    3    4    3
 7.751050499564241e-06    9    3    4    4
 -0.0118779116342715    9    3    5    1
 -2.727242038549052e-15    9    3    5    2
 0.0001584019627707353    9    3    5    4
 7.352876301626348e-06    9    3    5    5
 0.001069660955787435    9    3    6    2
 -0.005113050930836333    9    3    6    3
 -1.399625792799929e-15    9    3    6    5
 0.0004937920665678125    9    3    6    6
 -2.683309411100214e-15    9    3    7    1
 -0.0049218847931116    9    3    7    2
 -0.001110714441832227    9    3    7    3
 -0.001075953002826546    9    3    7    6
 -0.0004869072220558897    9    3    7    7
 -1.826235130393649e-07    9    3    8    1
 -1.285297785736844e-14    9    3    8    2
 -1.167980764233232e-14    9    3    8    3
 2.664692674442472e-07    9    3    8    4
 -0.001044151662994643    9    3    8    5
 -7.984042977114874e-15    9    3    8    6
 -4.205840797332805e-15    9    3    8    7
 1.251309125918137e-06    9    3    8    8
 -4.764488227435713e-06    9    3    9    2
 0.007476718394667785    9    3    9    3
 -0.00965195306365723    9    4    2    1
 4.289961065518973e-15    9    4    2    2
 -1.755148694267389e-06    9    4    3    1
 -2.503555586268564e-15    9    4    3    3
 4.293472286451568e-15    9    4    4    1
 -0.00823626925422606    9    4    4    2
 1.497715050850619e-06    9    4    4    3
 -1.136256805999169e-07    9    4    5    2
 -0.0006248527469128981    9    4    5    3
 0.001789627737537655    9    4    6    1
 -1.563555554262637e-15    9    4    6    2
 -0.0005759294634079599    9    4    6    4
 -0.0004920025512495552    9    4    6    5
 -1.326285005223982e-14    9    4    6    6
 0.0003889605132634237    9    4    7    1
 2.494600221191177e-15    9    4    7    3
 -0.0001249540818875441    9    4    7    4
 0.002267703150809037    9    4    7    5
 -3.796892232398987e-15    9    4    7    6
 -2.427689710794092e-15    9    4    7    7
 9.499785110179529e-15    9    4    8    1
 0.0007759564333197185    9    4    8    2
 1.411029128502838e-07    9    4    8    3
 6.406799201977933e-15    9    4    8    4
 -6.188273369361505e-15    9    4    8    5
 0.006497317511648006    9    4    8    6
 0.001412137229264118    9    4    8    7
 1.18843061218371e-15    9    4    8    8
 0.01144185934452044    9    4    9    1
 0.01423563644276057    9    4    9    4
 1.835720016531704e-06    9    5    2    1
 -0.01009503318515794    9    5    3    1
 -4.054656056436981e-15    9    5    3    2
 2.507839194882804e-07    9    5    4    2
 0.001379116971545882    9    5    4    3
 -5.776512645721234e-15    9    5    5    1
 -0.007597949698395767    9    5    5    2
 1.381640539952643e-06    9    5    5    3
 0.0005114001025576981    9    5    6    1
 1.021186024610185e-15    9    5    6    2
 -4.034103155684054e-15    9    5    6    3
 -0.0004444889019509569    9    5    6    4
 0.0004369761027378652    9    5    6    5
 5.017492339012045e-15    9    5    6    6
 -0.002352978714392648    9    5    7    1
 -4.250484766397428e-15    9    5    7    2
 -1.303888986342458e-15    9    5    7    3
 0.002048706619399782    9    5    7    4
 9.480665804767816e-05    9    5    7    5
 -9.228335940556658e-15    9    5    7    6
 -8.471387023032323e-15    9    5    7    7
 -1.927844890695574e-14    9    5    8    1
 -7.69415256458318e-08    9    5    8    2
 0.0004231186586593226    9    5    8    3
 4.750891682059555e-15    9    5    8    4
 -7.606267338354545e-15    9    5    8    5
 -0.001718387980174879    9    5    8    6
 0.007906393291059789    9    5    8    7
 -1.54532564186477e-14    9    5    8    8
 -4.594607434164439e-06    9    5    9    1
 1.255711222852752e-15    9    5    9    3
 2.474692566269369e-14    9    5    9    4
 0.01578069322816136    9    5    9    5
 -0.004128989977416907    9    6    1    1