 &FCI NORB=  30,NELEC= 8,MS2=0,
  ORBSYM=1,1,1,1,1,1,1,1,1,1,1,1,1,1,1,1,1,1,1,1,1,1,1,1,1,1,1,1,1,1,
  ISYM=1,
 &END
 0.242218944740629    1    1    1    1
 0.09165153939043066    2    1    2    1
 0.2408393616172121    2    2    1    1
 0.263845111769017    2    2    2    2
 0.09165153939043026    3    1    3    1
 0.0301165009162084    3    2    3    2
 0.2408393616172117    3    3    1    1
 0.2157788521843027    3    3    2    2
 0.2638451117690165    3    3    3    3
 0.03936416240770434    4    1    3    2
 0.05147303114847281    4    1    4    1
 0.06696120660310854    4    2    3    1
 0.06675173505683633    4    2    4    2
 0.06696120660310863    4    3    2    1
 0.06675173505683631    4    3    4    3
 0.2359548381639691    4    4    1    1
 0.2367556734386773    4    4    2    2
 0.2367556734386771    4    4    3    3
 0.2544089440812601    4    4    4    4
 0.03593501648633986    5    1    2    2
 -0.03593501648633991    5    1    3    3
 0.05380280039708417    5    1    5    1
 0.06244024042169104    5    2    2    1
 0.02761179528880591    5    2    4    3
 0.06134821256355219    5    2    5    2
 -0.06244024042169107    5    3    3    1
 -0.02761179528880609    5    3    4    2
 0.06134821256355242    5    3    5    3
 0.004930647372157476    5    4    5    4
 0.237660038401317    5    5    1    1
 0.2353577707729019    5    5    2    2
 0.2353577707729019    5    5    3    3
 0.2101251637173945    5    5    4    4
 0.2578786344181215    5    5    5    5
 -0.003304266284771454    6    1    2    1
 -1.092336038851455e-15    6    1    4    2
 0.02209903074079939    6    1    4    3
 -0.02739570385871633    6    1    5    2
 -1.378396899372285e-15    6    1    5    3
 0.03433161537913745    6    1    6    1
 -0.001485218097336367    6    2    1    1
 -0.02514819616836922    6    2    2    2
 -1.723102809512199e-15    6    2    3    2
 0.02539984006953278    6    2    3    3
 -1.781522862683029e-15    6    2    4    1
 0.02206544880583796    6    2    4    4
 -0.03794715126699989    6    2    5    1
 -0.02487690227736074    6    2    5    5
 0.05089072237242596    6    2    6    2
 -1.655130887669062e-15    6    3    2    2
 0.02676370991455321    6    3    3    2
 1.673017290677466e-15    6    3    3    3
 0.03507323987262689    6    3    4    1
 -1.036811906946743e-15    6    3    4    4
 -1.90531016634313e-15    6    3    5    1
 -0.004033916480934265    6    3    5    4
 1.209878136767347e-15    6    3    5    5
 0.02750544514723691    6    3    6    3
 -3.024472792011624e-15    6    4    2    1
 0.0608059715772325    6    4    3    1
 0.05482532806168137    6    4    4    2
 -2.281362782612745e-15    6    4    4    3
 -0.03185716786348931    6    4    5    3
 -1.559305691886216e-15    6    4    6    1
 0.05252278300428521    6    4    6    4
 -0.06557249431338902    6    5    2    1
 -3.317969987464319e-15    6    5    3    1
 -0.03578086554215382    6    5    4    3
 -0.05749390826665406    6    5    5    2
 2.450618213179889e-15    6    5    5    3
 0.02062226615441468    6    5    6    1
 0.06227642289889408    6    5    6    5
 0.230713380163209    6    6    1    1
 0.2487423495657121    6    6    2    2
 -1.718334760509272e-15    6    6    3    2
 0.2118023936063786    6    6    3    3
 -2.555542950307029e-15    6    6    4    1
 0.225815549431432    6    6    4    4
 0.02800940248560801    6    6    5    1
 0.2309396169261472    6    6    5    5
 -0.02348095760740905    6    6    6    2
 -2.72763552410088e-15    6    6    6    3
 0.2440499966067184    6    6    6    6
 -0.00330426628477128    7    1    3    1
 0.02209903074079947    7    1    4    2
 1.191435024364915e-15    7    1    4    3
 -1.362346376830429e-15    7    1    5    2
 0.02739570385871625    7    1    5    3
 0.01257818944561514    7    1    6    4
 2.229647224698727e-15    7    1    6    5
 0.03433161537913747    7    1    7    1
 -1.677421832234182e-15    7    2    2    2
 0.02676370991455325    7    2    3    2
 1.641291083060884e-15    7    2    3    3
 0.03507323987262694    7    2    4    1
 1.0436010298432e-15    7    2    4    4
 -1.898860239566454e-15    7    2    5    1
 0.004033916480934157    7    2    5    4
 -1.20496020307287e-15    7    2    5    5
 1.099724334511064e-15    7    2    6    2
 0.0209045777294988    7    2    6    3
 -3.052973038976857e-15    7    2    6    6
 0.02750544514723696    7    2    7    2
 -0.001485218097336274    7    3    1    1
 0.02539984006953274    7    3    2    2
 1.717108354957642e-15    7    3    3    2
 -0.02514819616836928    7    3    3    3
 1.837971526316849e-15    7    3    4    1
 0.02206544880583789    7    3    4    4
 0.03794715126699988    7    3    5    1
 -0.02487690227736103    7    3    5    5
 -0.002973547872574627    7    3    6    2
 -1.142035920306853e-15    7    3    6    3
 0.0174133169481115    7    3    6    6
 0.05089072237242611    7    3    7    3
 0.06080597157723263    7    4    2    1
 3.200037479850973e-15    7    4    3    1
 2.303389162390741e-15    7    4    4    2
 0.0548253280616814    7    4    4    3
 0.03185716786348917    7    4    5    2
 0.01257818944561511    7    4    6    1
 -0.0318239370468872    7    4    6    5
 1.519003147161673e-15    7    4    7    1
 0.05252278300428528    7    4    7    4
 -3.293398786266754e-15    7    5    2    1
 0.06557249431338893    7    5    3    1
 0.03578086554215378    7    5    4    2
 -1.061902129827391e-15    7    5    4    3
 -2.415024494815042e-15    7    5    5    2
 -0.05749390826665438    7    5    5    3
 2.231927796811987e-15    7    5    6    1
 0.03182393704688719    7    5    6    4
 -0.02062226615441477    7    5    7    1
 0.06227642289889437    7    5    7    5
 1.742422862421581e-15    7    6    2    2
 0.0162597258805942    7    6    3    2
 -1.848974910856509e-15    7    6    3    3
 0.02147580825105245    7    6    4    1
 3.089355434835763e-15    7    6    5    1
 -3.085468238855783e-15    7    6    6    2
 0.0156641250068499    7    6    6    3
 0.01566412500684993    7    6    7    2
 3.063663064998078e-15    7    6    7    3
 0.01327413556598895    7    6    7    6
 0.2307133801632093    7    7    1    1
 0.2118023936063791    7    7    2    2
 1.602556633543363e-15    7    7    3    2
 0.2487423495657125    7    7    3    3
 2.474272074112385e-15    7    7    4    1
 0.2258155494314323    7    7    4    4
 -0.02800940248560829    7    7    5    1
 0.2309396169261479    7    7    5    5
 0.01741331694811163    7    7    6    2
 2.958755117582791e-15    7    7    6    3
 0.2060428728109253    7    7    6    6
 2.647458098208735e-15    7    7    7    2
 -0.02348095760740938    7    7    7    3
 0.2440499966067194    7    7    7    7
 -0.001335938367037384    8    1    1    1
 0.0003456493659631227    8    1    2    2
 0.0003456493659631654    8    1    3    3
 0.02384096004885971    8    1    4    4
 -0.02661319932120713    8    1    5    5
 0.02575217040837737    8    1    6    2
 -1.337388052037998e-15    8    1    6    3
 -0.003233609482958505    8    1    6    6
 1.239661491127775e-15    8    1    7    2
 0.02575217040837737    8    1    7    3
 -0.003233609482958548    8    1    7    7
 0.02769999208837336    8    1    8    1
 0.002264460801331115    8    2    2    1
 0.02351818953279905    8    2    4    3
 -0.02055475787143752    8    2    5    2
 0.03105375284759838    8    2    6    1
 -1.376592084554921e-15    8    2    6    4
 0.01864589500405277    8    2    6    5
 1.521980629454828e-15    8    2    7    1
 0.01881357226601394    8    2    7    4
 1.073054072451987e-15    8    2    7    5
 0.03138953122249025    8    2    8    2
 0.002264460801331127    8    3    3    1
 0.02351818953279904    8    3    4    2
 0.02055475787143753    8    3    5    3
 -1.588589688899736e-15    8    3    6    1
 0.0188135722660139    8    3    6    4
 1.198259984798434e-15    8    3    6    5
 0.0310537528475984    8    3    7    1
 1.156902102949049e-15    8    3    7    4
 -0.01864589500405296    8    3    7    5
 0.03138953122249029    8    3    8    3
 0.03328683369537594    8    4    3    2
 0.04377580793412718    8    4    4    1
 -2.119367993149188e-15    8    4    6    2
 0.03095290912603352    8    4    6    3
 -2.392102453536843e-15    8    4    6    6
 0.03095290912603355    8    4    7    2
 1.980614694598755e-15    8    4    7    3
 0.02267028610144476    8    4    7    6
 2.213872192858492e-15    8    4    7    7
 0.04181703911043923    8    4    8    4
 -0.03082634128223232    8    5    2    2
 0.03082634128223229    8    5    3    3
 -0.04657296055875129    8    5    5    1
 0.03361637514845002    8    5    6    2
 2.102132545471126e-15    8    5    6    3
 -0.02868431239528255    8    5    6    6
 2.099400465288581e-15    8    5    7    2
 -0.03361637514845021    8    5    7    3
 -2.859763094948255e-15    8    5    7    6
 0.02868431239528274    8    5    7    7
 0.04486387997431786    8    5    8    5
 0.08080540201089297    8    6    2    1
 -4.135813797476512e-15    8    6    3    1
 -3.935194588646939e-15    8    6    4    2
 0.05817516387161488    8    6    4    3
 0.05757744758482721    8    6    5    2
 3.676209643127518e-15    8    6    5    3
 -0.005348769068473838    8    6    6    1
 -5.578144916685407e-15    8    6    6    4
 -0.06153457747206355    8    6    6    5
 -1.053980087381572e-15    8    6    6    6
 0.05475381718364109    8    6    7    4
 -6.246465076033791e-15    8    6    7    5
 -0.0001018591442602249    8    6    8    2
 0.07782680170162255    8    6    8    6
 3.952255887728162e-15    8    7    2    1
 0.08080540201089298    8    7    3    1
 0.05817516387161495    8    7    4    2
 3.634296820978178e-15    8    7    4    3
 3.575731840650709e-15    8    7    5    2
 -0.0575774475848276    8    7    5    3
 0.05475381718364115    8    7    6    4
 -6.129684522807622e-15    8    7    6    5
 -0.005348769068473887    8    7    7    1
 5.478503536153702e-15    8    7    7    4
 0.06153457747206391    8    7    7    5
 -0.0001018591442603837    8    7    8    3
 0.07782680170162304    8    7    8    7
 0.2282955620993202    8    8    1    1
 0.2282370372449517    8    8    2    2
 0.2282370372449517    8    8    3    3
 0.2256259723969486    8    8    4    4
 0.2281300040844391    8    8    5    5
 -0.00163204327401063    8    8    6    2
 0.2244639797675987    8    8    6    6
 -0.001632043274010918    8    8    7    3
 0.2244639797675992    8    8    7    7
 -0.001803964383584231    8    8    8    1
 0.2250447288637404    8    8    8    8
 -0.02231681861616981    9    1    1    1
 -0.02282117546999731    9    1    2    2
 -0.02282117546999756    9    1    3    3
 -0.01998991347341202    9    1    4    4
 -1.064609736368666e-15    9    1    5    3
 -0.02663988651297485    9    1    5    5
 0.003477550582407806    9    1    6    2
 -0.02347494609968315    9    1    6    6
 0.003477550582408121    9    1    7    3
 1.136094255065066e-15    9    1    7    5
 -0.02347494609968354    9    1    7    7
 0.003881107798980312    9    1    8    1
 -0.02455966976383588    9    1    8    8
 0.01689653201143325    9    1    9    1
 -0.02308593334757862    9    2    2    1
 -0.01474664465885543    9    2    4    3
 -0.01831879666252487    9    2    5    2
 0.004155537416398778    9    2    6    1
 0.01914043406380067    9    2    6    5
 -0.01393288247412606    9    2    7    4
 1.037525589183553e-15    9    2    7    5
 0.002764442981344047    9    2    8    2
 -0.02261479744436688    9    2    8    6
 0.01618087975560014    9    2    9    2
 1.090255073450263e-15    9    3    1    1
 -0.02308593334757894    9    3    3    1
 1.602647036899425e-15    9    3    3    3
 -0.01474664465885552    9    3    4    2
 -1.037543048779516e-15    9    3    5    1
 0.01831879666252535    9    3    5    3
 1.559604560110267e-15    9    3    5    5
 -0.0139328824741261    9    3    6    4
 0.004155537416399044    9    3    7    1
 -1.374464674650002e-15    9    3    7    3
 -0.01914043406380122    9    3    7    5
 1.781195998517515e-15    9    3    7    7
 0.002764442981344369    9    3    8    3
 1.352752409678051e-15    9    3    8    6
 -0.02261479744436735    9    3    8    7
 -1.550342276202487e-15    9    3    9    1
 0.01618087975560075    9    3    9    3
 -0.01103909731561892    9    4    3    2
 -0.01448740864472135    9    4    4    1
 -0.0102148363772269    9    4    6    3
 1.363909414960647e-15    9    4    6    6
 -0.01021483637722696    9    4    7    2
 -0.007930953723982729    9    4    7    6
 -0.01416921362710747    9    4    8    4
 0.009029311370261344    9    4    9    4
 -0.01570283798735316    9    5    2    2
 -1.290253794887161e-15    9    5    3    1
 0.01570283798735405    9    5    3    3
 -0.02346338765296318    9    5    5    1
 1.535019478694545e-15    9    5    5    3
 0.01670904718035389    9    5    6    2
 -0.01482897243006932    9    5    6    6
 1.156639337394231e-15    9    5    7    1
 -0.01670904718035437    9    5    7    3
 -1.549963097416732e-15    9    5    7    5
 -1.61222467212531e-15    9    5    7    6
 0.01482897243007037    9    5    7    7
 1.023196422903674e-15    9    5    8    3
 0.02274636468003424    9    5    8    5
 -1.167602954515562e-15    9    5    8    7
 2.163474467667133e-15    9    5    9    3
 0.02257201506688679    9    5    9    5
 0.005918927223506326    9    6    2    1
 -0.007281864793349956    9    6    4    3
 0.01552857662286985    9    6    5    2
 -0.01642152968768436    9    6    6    1
 -0.01499772243937906    9    6    6    5
 -0.005773148325344764    9    6    7    4
 -1.54174308165994e-15    9    6    7    5
 -0.01650222352816809    9    6    8    2
 0.006191473483271647    9    6    8    6
 -0.006990198629416433    9    6    9    2
 0.01603143774890506    9    6    9    6
 -1.549494187424829e-15    9    7    1    1
 0.005918927223506852    9    7    3    1
 -2.406884209430396e-15    9    7    3    3
 -0.007281864793349874    9    7    4    2
 1.416030960948684e-15    9    7    5    1
 -0.01552857662287058    9    7    5    3
 -2.06038604135513e-15    9    7    5    5
 -0.005773148325344611    9    7    6    4
 -1.641902878079837e-15    9    7    6    5
 -0.01642152968768486    9    7    7    1
 1.64804021201284e-15    9    7    7    3
 0.01499772243937986    9    7    7    5
 -2.247971577739034e-15    9    7    7    7
 -0.01650222352816856    9    7    8    3
 -1.222544778308743e-15    9    7    8    5
 0.006191473483272317    9    7    8    7
 -1.383870318175913e-15    9    7    8    8
 1.662013000215141e-15    9    7    9    1
 -0.006990198629417163    9    7    9    3
 -2.347237830187684e-15    9    7    9    5
 0.01603143774890589    9    7    9    7
 0.01027796488268859    9    8    1    1
 0.00904890210040383    9    8    2    2
 -1.430411006099729e-15    9    8    3    1
 0.009048902100404372    9    8    3    3
 -0.006330750069162708    9    8    4    4
 1.510749840342041e-15    9    8    5    3
 0.02543453223230021    9    8    5    5
 -0.01618207474471361    9    8    6    2
 1.039742283418763e-15    9    8    6    3
 0.009979915119707954    9    8    6    6
 -0.01618207474471424    9    8    7    3
 -1.442132665572745e-15    9    8    7    5
 0.009979915119708561    9    8    7    7
 -0.0173319429997099    9    8    8    1
 -1.309817024640601e-15    9    8    8    7
 0.00899196901411934    9    8    8    8
 -0.007416574003898824    9    8    9    1
 1.706429969347519e-15    9    8    9    3
 -1.777017737205206e-15    9    8    9    7
 0.01775326809496536    9    8    9    8
 0.2269017452926248    9    9    1    1
 -2.340658479975858e-15    9    9    2    1
 0.2248104561615076    9    9    2    2
 -7.695087207537694e-15    9    9    3    1
 0.2248104561615092    9    9    3    3
 -3.574901705454025e-15    9    9    4    2
 -2.079390557015374e-15    9    9    4    3
 0.211592201662167    9    9    4    4
 -1.367791733901107e-15    9    9    5    1
 -1.156834131994589e-15    9    9    5    2
 7.416488548104674e-15    9    9    5    3
 0.232430932760734    9    9    5    5
 -0.01113738313923872    9    9    6    2
 -3.736383947008547e-15    9    9    6    4
 1.528281094760299e-15    9    9    6    5
 0.2179634428630431    9    9    6    6
 3.35988783928288e-15    9    9    7    1
 -1.132515551038267e-15    9    9    7    2
 -0.01113738313924075    9    9    7    3
 -1.873806761999853e-15    9    9    7    4
 -7.298652496048574e-15    9    9    7    5
 0.217963442863045    9    9    7    7
 -0.01174608475682897    9    9    8    1
 2.575921937510971e-15    9    9    8    3
 1.240413850448319e-15    9    9    8    5
 -2.18730331277082e-15    9    9    8    6
 -7.174693311688784e-15    9    9    8    7
 0.2162573428212291    9    9    8    8
 -0.02107202291151342    9    9    9    1
 3.630450701140139e-15    9    9    9    3
 1.232967405392738e-15    9    9    9    5
 -3.942423821461769e-15    9    9    9    7
 0.01678375232817701    9    9    9    8
 0.2253887645915139    9    9    9    9
 -0.01445201783923874   10    1    2    1
 -0.0005670417969874084   10    1    3    1
 -0.0001333682275635091   10    1    4    2
 -0.003399114517092851   10    1    4    3
 -1.014644981556887e-15   10    1    5    1
 -0.01708885267104332   10    1    5    2
 0.0006705010909086156   10    1    5    3
 0.01094834848458567   10    1    6    1
 -7.722915931295838e-05   10    1    6    4
 0.01928038481280182   10    1    6    5
 0.0004295712382734934   10    1    7    1
 -0.001968315552803968   10    1    7    4
 -0.0007564884137605623   10    1    7    5
 0.01163542950337266   10    1    8    2
 0.0004565296644182042   10    1    8    3
 -0.01483116747637177   10    1    8    6
 -0.0005819181757719757   10    1    8    7
 0.01301158821893262   10    1    9    2
 0.0005105248587011519   10    1    9    3
 -0.01339629145690993   10    1    9    6
 -0.000525619139500318   10    1    9    7
 0.01600942953691017   10    1   10    1
 -0.01778687019076692   10    2    1    1
 -0.0282476054686013   10    2    2    2
 -6.460177681098431e-06   10    2    3    2
 -0.006287398750860881   10    2    3    3
 -8.655367314166256e-06   10    2    4    1
 -0.006415655750771042   10    2    4    4
 -0.01639631593542811   10    2    5    1
 -1.266629126461555e-15   10    2    5    2
 -7.562642229067802e-05   10    2    5    4
 -0.02919828513391734   10    2    5    5
 0.02339201684870064   10    2    6    2
 5.807653617936704e-05   10    2    6    3
 1.067535984558133e-15   10    2    6    5
 -0.02985407700359899   10    2    6    6
 -6.585775267641116e-05   10    2    7    2
 -0.0001051869865128358   10    2    7    3
 1.881303546229139e-05   10    2    7    6
 -0.006528510073435799   10    2    7    7
 0.01252659977435452   10    2    8    1
 1.165049757877967e-05   10    2    8    4
 0.01704284222632614   10    2    8    5
 -0.01824692283844155   10    2    8    8
 0.01336833445556503   10    2    9    1
 4.2840452906966e-06   10    2    9    4
 0.01773388116270874   10    2    9    5
 -0.01407510963619876   10    2    9    8
 -0.02120220755230755   10    2    9    9
 2.141940787736748e-15   10    2   10    1
 0.02997159525701186   10    2   10    2
 -0.0006978886234398208   10    3    1    1
 -0.000246693432413624   10    3    2    2
 -0.0001646485384104148   10    3    3    2
 -0.00110832778811116   10    3    3    3
 -0.0002205966535387896   10    3    4    1
 -0.000251725745583561   10    3    4    4
 0.0006433286033424665   10    3    5    1
 0.001927467093028809   10    3    5    4
 -0.001145628814983503   10    3    5    5
 -4.127134253176761e-06   10    3    6    2
 -0.001678496050214371   10    3    6    3
 -0.0002561537167247023   10    3    6    6
 0.001480178606520786   10    3    7    2
 0.000917813098253468   10    3    7    3
 0.0004794819809990218   10    3    7    6
 -0.001171359574824039   10    3    7    7
 0.0004914957707087246   10    3    8    1
 0.0002969326066270301   10    3    8    4
 -0.0006686958173791784   10    3    8    5
 -0.0007159393263207911   10    3    8    8
 0.000524522213903646   10    3    9    1
 0.0001091861293059469   10    3    9    4
 -0.0006958095370433594   10    3    9    5
 -0.0005522533634878118   10    3    9    8
 -0.0008318933732505442   10    3    9    9
 1.266509595980273e-05   10    3   10    2
 0.001335237538539   10    3   10    3
 -2.470600588330986e-05   10    4    2    1
 -0.0006296742844398578   10    4    3    1
 0.002585372418921662   10    4    4    2
 0.0001014401060541168   10    4    4    3
 -0.0001500925325203841   10    4    5    2
 0.00382536167359972   10    4    5    3
 0.0001650552294354534   10    4    6    1
 -0.000104160538401895   10    4    6    4
 5.730139796513407e-05   10    4    6    5
 0.004206711274087523   10    4    7    1
 -4.086860362752415e-06   10    4    7    4
 -0.001460422900053172   10    4    7    5
 0.0001076715294022997   10    4    8    2
 0.002744190766833881   10    4    8    3
 -2.481100045473562e-05   10    4    8    6
 -0.0006323502484115508   10    4    8    7
 1.786137033744291e-05   10    4    9    2
 0.0004552271880554234   10    4    9    3
 -1.767110964637241e-05   10    4    9    6
 -0.000450378073024245   10    4    9    7
 -4.385598668451481e-07   10    4   10    1
 0.001999426702612731   10    4   10    4
 -1.736904425307056e-15   10    5    1    1
 -0.02108397456848611   10    5    2    1
 -1.96213041700361e-15   10    5    2    2
 0.0008272543640577253   10    5    3    1
 -1.163705575300626e-15   10    5    3    3
 5.923712477450877e-05   10    5    4    2
 -0.001509758166912902   10    5    4    3
 -0.02830480531067583   10    5    5    2
 -0.001110572090713025   10    5    5    3
 -2.314828251931223e-15   10    5    5    5
 0.02004333684780444   10    5    6    1
 1.009515748294521e-15   10    5    6    2
 0.0001544641298154309   10    5    6    4
 0.02664591210834808   10    5    6    5
 -1.397540134461528e-15   10    5    6    6
 -0.0007864237278291269   10    5    7    1
 -0.003936779213586576   10    5    7    4
 0.001045483478665696   10    5    7    5
 -1.211214363167262e-15   10    5    7    7
 0.0182067799848128   10    5    8    2
 -0.0007143642745797551   10    5    8    3
 -0.02111847749446107   10    5    8    6
 0.0008286081266498261   10    5    8    7
 -1.479468928458565e-15   10    5    8    8
 1.000729072687794e-15   10    5    9    1
 0.01857988120704412   10    5    9    2
 -0.000729003336741624   10    5    9    3
 -0.01971330262732504   10    5    9    6
 0.0007734744497747437   10    5    9    7
 -1.03138816493056e-15   10    5    9    8
 -1.717139874508475e-15   10    5    9    9
 0.02168086342274371   10    5   10    1
 2.960643891310719e-15   10    5   10    2
 0.03302709323826946   10    5   10    5
 0.02492087074644511   10    6    1    1
 1.395511598122167e-15   10    6    2    1
 0.04122109300695095   10    6    2    2
 0.0001880004669582995   10    6    3    2
 0.006832485218258277   10    6    3    3
 0.0002455141176567782   10    6    4    1
 0.01299299850841178   10    6    4    4
 0.02562675065677872   10    6    5    1
 1.311954406465213e-15   10    6    5    2
 -1.877548849501702e-05   10    6    5    4
 0.03451066534961642   10    6    5    5
 -0.0291424810351434   10    6    6    2
 0.0001782078817882765   10    6    6    3
 -1.019077595117317e-15   10    6    6    5
 0.03775341664640965   10    6    6    6
 0.0001473694948556595   10    6    7    2
 0.00697172928477492   10    6    7    3
 7.465772242487967e-05   10    6    7    6
 0.008561864315715631   10    6    7    7
 -0.01186503832270115   10    6    8    1
 0.0001831480043451618   10    6    8    4
 -0.02328874314131802   10    6    8    5
 0.02284295010197801   10    6    8    8
 -0.01400750303439391   10    6    9    1
 -2.519372711782607e-05   10    6    9    4
 -0.02080693100512784   10    6    9    5
 0.01514839875576491   10    6    9    8
 0.02809021273047219   10    6    9    9
 -2.075819991225043e-15   10    6   10    1
 -0.03216692702424472   10    6   10    2
 -3.307563246475381e-05   10    6   10    3
 -3.054252262148462e-15   10    6   10    5
 0.03874409403170575   10    6   10    6
 0.0009777994663282962   10    7    1    1
 0.0002680805365160312   10    7    2    2
 0.004791509403192561   10    7    3    2
 0.001617357722116131   10    7    3    3
 0.00625734192262088   10    7    4    1
 0.0005097954697005512   10    7    4    4
 -0.001005495488933976   10    7    5    1
 0.0004785250330915368   10    7    5    4
 0.00135406625654529   10    7    5    5
 0.0002735439400710954   10    7    6    2
 0.003755960459976898   10    7    6    3
 0.0003359347449731271   10    7    6    6
 0.004541928832035502   10    7    7    2
 -0.001143439275999429   10    7    7    3
 0.001902778140928358   10    7    7    6
 0.001481299390558457   10    7    7    7
 -0.0004655386345822355   10    7    8    1
 0.004667836198460197   10    7    8    4
 0.0009137610337401477   10    7    8    5
 0.0008962698232469949   10    7    8    8
 -0.0005496007395157293   10    7    9    1
 -0.0006421046837840762   10    7    9    4
 0.0008163842363168973   10    7    9    5
 0.0005943651154817216   10    7    9    8
 0.001102152300228906   10    7    9    9
 -3.307563246634936e-05   10    7   10    2
 0.0004862495682176312   10    7   10    3
 -4.148264574959629e-05   10    7   10    6
 0.002050967229388474   10    7   10    7
 1.096094535645869e-15   10    8    1    1
 0.02682727570808082   10    8    2    1
 1.770736067976019e-15   10    8    2    2
 0.001052599491296377   10    8    3    1
 0.0003945639379071848   10    8    4    2
 0.01005612831303162   10    8    4    3
 1.308311782723566e-15   10    8    5    1
 0.02764936413887567   10    8    5    2
 -0.001084855090913101   10    8    5    3
 -0.01414770078026818   10    8    6    1
 0.000400110998757463   10    8    6    4
 -0.02717755318331807   10    8    6    5
 1.154175106482492e-15   10    8    6    6
 -0.000555101561797952   10    8    7    1
 0.01019750452690421   10    8    7    4
 0.001066343037089833   10    8    7    5
 -0.01251650634421679   10    8    8    2
 -0.0004910997431901134   10    8    8    3
 -1.178326142641091e-15   10    8    8    5
 0.02415385272435849   10    8    8    6
 0.0009477046185081292   10    8    8    7
 -0.01581823441965423   10    8    9    2
 -0.0006206468999876112   10    8    9    3
 -1.06098414414292e-15   10    8    9    5
 0.01520400929125518   10    8    9    6
 0.0005965470597836134   10    8    9    7
 -0.01724220653837086   10    8   10    1
 -2.267817588215322e-15   10    8   10    2
 -8.675184073404007e-05   10    8   10    4
 -0.02589907800172595   10    8   10    5
 2.470359876410058e-15   10    8   10    6
 0.02272412679955699   10    8   10    8
 0.06501445524907101   10    9    2    1
 1.61163625124896e-15   10    9    2    2
 0.002550918075571259   10    9    3    1
 -1.654471791455765e-15   10    9    3    3
 0.001176697289669863   10    9    4    2
 0.02999011768100904   10    9    4    3
 2.589716178985423e-15   10    9    5    1
 0.0626273459501198   10    9    5    2
 -0.002457257054560427   10    9    5    3
 -0.02753073002317493   10    9    6    1
 -1.9130956763004e-15   10    9    6    2
 0.001214968854063859   10    9    6    4
 -0.06289785410665567   10    9    6    5
 -0.001080200342844303   10    9    7    1
 1.463140282698697e-15   10    9    7    3
 0.03096553313416151   10    9    7    4
 0.002467870757978711   10    9    7    5
 -1.30212476441063e-15   10    9    7    7
 -0.02294821978188466   10    9    8    2
 -0.0009004002020709367   10    9    8    3
 -2.476663276323022e-15   10    9    8    5
 0.06173338624128735   10    9    8    6
 0.002422181501421965   10    9    8    7
 -0.0205011475701495   10    9    9    2
 -0.0008043864661527836   10    9    9    3
 -1.284649951061066e-15   10    9    9    5
 0.01861751327032792   10    9    9    6
 0.0007304798746922994   10    9    9    7
 -1.583774943567475e-15   10    9    9    9
 -0.02112547505679951   10    9   10    1
 -2.549588664079082e-15   10    9   10    2
 -0.0002420142988716095   10    9   10    4
 -0.03246210338241295   10    9   10    5
 2.891010528817187e-15   10    9   10    6
 0.03142104795381163   10    9   10    8
 0.07332136078395982   10    9   10    9
 0.2208501000118968   10   10    1    1
 1.046892205498362e-14   10   10    2    1
 0.258583242419128   10   10    2    2
 -0.0001709834619412583   10   10    3    2
 0.1790172677446729   10   10    3    3
 -0.0002280185911751531   10   10    4    1
 4.848829013020585e-15   10   10    4    3
 0.1952207712266684   10   10    4    4
 0.05989864796370106   10   10    5    1
 9.691227665505125e-15   10   10    5    2
 0.2409028435572027   10   10    5    5
 -3.911695412127852e-15   10   10    6    1
 -0.06661230074737935   10   10    6    2
 -0.0001656533756727647   10   10    6    3
 -9.354262092870372e-15   10   10    6    5
 0.2513860560342631   10   10    6    6
 -0.0001656533756752479   10   10    7    2
 0.01922279568514642   10   10    7    3
 4.907332744625703e-15   10   10    7    4
 -0.0001005692391314349   10   10    7    6
 0.1810766888979973   10   10    7    7
 -0.02540164998742719   10   10    8    1
 -3.529950759470239e-15   10   10    8    2
 -0.0002104205166459334   10   10    8    4
 -0.0559460296202625   10   10    8    5
 9.232811009780163e-15   10   10    8    6
 0.2145712988180499   10   10    8    8
 -0.02551163323029472   10   10    9    1
 -3.079720295009844e-15   10   10    9    2
 -5.820080517847564e-06   10   10    9    4
 -0.03137432395330678   10   10    9    5
 2.739232195715155e-15   10   10    9    6
 0.02624045788897475   10   10    9    8
 0.2243076800858135   10   10    9    9
 -5.191332671451777e-15   10   10   10    1
 -0.05230411614938983   10   10   10    2
 -0.0002268102788736495   10   10   10    3
 -7.904134508675417e-15   10   10   10    5
 0.0662592370600269   10   10   10    6
 -7.355829637606912e-06   10   10   10    7
 7.209627813080567e-15   10   10   10    8
 1.479411070053181e-14   10   10   10    9