 &FCI NORB=  30,NELEC= 8,MS2=0,
  ORBSYM=1,1,1,1,1,1,1,1,1,1,1,1,1,1,1,1,1,1,1,1,1,1,1,1,1,1,1,1,1,1,
  ISYM=1,
 &END
 0.2855224317248224    1    1    1    1
 -1.504027419313968e-15    2    1    1    1
 0.1011393183657302    2    1    2    1
 0.2819744655501387    2    2    1    1
 0.3125411923234217    2    2    2    2
 1.85663675288145e-15    3    1    1    1
 0.1011393183657304    3    1    3    1
 0.02487250117939635    3    2    3    2
 0.2819744655501388    3    3    1    1
 0.2460291973566764    3    3    2    2
 0.312541192323422    3    3    3    3
 -0.04246269232370973    4    1    2    2
 0.0424626923237097    4    1    3    3
 0.05424975076997792    4    1    4    1
 1.078626117397124e-15    4    2    1    1
 -0.07429703003785663    4    2    2    1
 -1.028591452751621e-15    4    2    2    2
 -1.327997214799699e-15    4    2    3    1
 0.07237596263576059    4    2    4    2
 1.394847178041758e-15    4    3    1    1
 -1.302201432879982e-15    4    3    2    1
 0.07429703003785668    4    3    3    1
 -1.1720720588799e-15    4    3    3    3
 0.07237596263576061    4    3    4    3
 0.2728027709597575    4    4    1    1
 0.2722809875819791    4    4    2    2
 0.2722809875819794    4    4    3    3
 0.2838451312891046    4    4    4    4
 0.03660866934222937    5    1    3    2
 0.0540057381425476    5    1    5    1
 1.209789846604501e-15    5    2    1    1
 -1.051701732413168e-15    5    2    2    1
 0.06695270078096976    5    2    3    1
 -1.030383044678612e-15    5    2    3    3
 0.03120893742147685    5    2    4    3
 0.06390009331916273    5    2    5    2
 0.06695270078096964    5    3    2    1
 1.030193902116415e-15    5    3    3    1
 -0.03120893742147686    5    3    4    2
 0.06390009331916266    5    3    5    3
 0.006785472494849122    5    4    5    4
 0.2718327222406124    5    5    1    1
 0.2687758870236595    5    5    2    2
 0.2687758870236596    5    5    3    3
 0.2437072409416145    5    5    4    4
 0.2834247416877104    5    5    5    5
 5.36697413562993e-15    6    1    2    1
 -0.002962669399111807    6    1    3    1
 3.837609187271552e-14    6    1    4    2
 0.02081429398178182    6    1    4    3
 -0.02609726325783302    6    1    5    2
 4.793757465978879e-14    6    1    5    3
 0.03061473292973797    6    1    6    1
 2.158393022474668e-15    6    2    1    1
 -4.993601757172461e-14    6    2    2    2
 -0.02520105411718825    6    2    3    2
 4.930234413852557e-14    6    2    3    3
 6.415706077617858e-14    6    2    4    1
 -3.367236628958049e-14    6    2    4    4
 -0.03736286371692258    6    2    5    1
 0.005689070254871785    6    2    5    4
 3.821754045748259e-14    6    2    5    5
 0.03090714363946665    6    2    6    2
 -0.001286760132706547    6    3    1    1
 -0.02713010864736308    6    3    2    2
 4.586043620372436e-14    6    3    3    2
 0.0272289450829642    6    3    3    3
 0.0348395064571689    6    3    4    1
 0.01805445421680682    6    3    4    4
 6.867560273686889e-14    6    3    5    1
 1.058867905089775e-14    6    3    5    4
 -0.02068472695919491    6    3    5    5
 -3.216912603490276e-14    6    3    6    2
 0.04167199045849666    6    3    6    3
 1.167637179584651e-13    6    4    2    1
 0.06342554371367341    6    4    3    1
 -1.002386174239608e-13    6    4    4    2
 0.05396732204449498    6    4    4    3
 0.03630551038299175    6    4    5    2
 6.743733562278447e-14    6    4    5    3
 0.007402079836227956    6    4    6    1
 0.0506044181961006    6    4    6    4
 -0.06883458071547405    6    5    2    1
 -1.077034783954516e-15    6    5    2    2
 1.265827421741239e-13    6    5    3    1
 0.04180823025808664    6    5    4    2
 7.76623259636378e-14    6    5    4    3
 1.037804257276721e-13    6    5    5    2
 -0.05594315272540058    6    5    5    3
 -5.642728337141884e-14    6    5    6    1
 0.06077417150025545    6    5    6    5
 0.2549015450978421    6    6    1    1
 0.2428306204879571    6    6    2    2
 -5.195087771872877e-14    6    6    3    2
 0.265287201488921    6    6    3    3
 0.0145590804636629    6    6    4    1
 0.2479727522968737    6    6    4    4
 -7.770379348680241e-14    6    6    5    1
 0.2514143729584078    6    6    5    5
 8.004422979209479e-14    6    6    6    2
 0.007678774074217095    6    6    6    3
 0.2484848801094052    6    6    6    6
 0.002962669399111912    7    1    2    1
 5.329306843585559e-15    7    1    3    1
 0.02081429398178195    7    1    4    2
 -3.841218462105387e-14    7    1    4    3
 4.786767512520047e-14    7    1    5    2
 0.02609726325783334    7    1    5    3
 -2.739442128655128e-14    7    1    6    4
 -0.01529664767903108    7    1    6    5
 0.03061473292973863    7    1    7    1
 0.001286760132706725    7    2    1    1
 -0.02722894508296434    7    2    2    2
 1.054824372485468e-15    7    2    3    1
 4.584564073269169e-14    7    2    3    2
 0.02713010864736348    7    2    3    3
 0.03483950645716918    7    2    4    1
 -0.01805445421680686    7    2    4    4
 6.861635965761906e-14    7    2    5    1
 -1.062941239320685e-14    7    2    5    4
 0.0206847269591953    7    2    5    5
 2.007098711040361e-14    7    2    6    2
 0.003963349545829663    7    2    6    3
 0.0130908111962519    7    2    6    6
 -1.498039261497635e-15    7    2    7    1
 0.04167199045849763    7    2    7    2
 2.167527289744344e-15    7    3    1    1
 1.00916110786961e-15    7    3    2    1
 4.932747544118747e-14    7    3    2    2
 0.02520105411718852    7    3    3    2
 -4.99224548640147e-14    7    3    3    3
 -6.41701543633024e-14    7    3    4    1
 -3.366783006803952e-14    7    3    4    4
 0.03736286371692295    7    3    5    1
 0.005689070254871633    7    3    5    4
 3.806965872193436e-14    7    3    5    5
 -0.02136097391524679    7    3    6    2
 -2.001367273530178e-14    7    3    6    3
 -7.042363751910809e-14    7    3    6    6
 3.209447143862576e-14    7    3    7    2
 0.03090714363946719    7    3    7    3
 -1.042224711973346e-15    7    4    1    1
 0.06342554371367345    7    4    2    1
 -1.167801857561864e-13    7    4    3    1
 1.373704103597139e-15    7    4    4    1
 -0.05396732204449518    7    4    4    2
 -1.002171936551978e-13    7    4    4    3
 -6.750474568369171e-14    7    4    5    2
 0.0363055103829916    7    4    5    3
 -2.732728639849458e-14    7    4    6    1
 -0.03501338032143005    7    4    6    5
 -0.007402079836228246    7    4    7    1
 1.353764514436715e-15    7    4    7    2
 0.05060441819610088    7    4    7    4
 1.959966424407991e-15    7    5    1    1
 1.264721167462713e-13    7    5    2    1
 1.054568257481705e-15    7    5    2    2
 0.06883458071547463    7    5    3    1
 -7.765606246542703e-14    7    5    4    2
 0.04180823025808677    7    5    4    3
 -1.687399102959812e-15    7    5    5    1
 0.05594315272540111    7    5    5    2
 1.035786918635358e-13    7    5    5    3
 -0.01529664767903111    7    5    6    1
 0.03501338032143035    7    5    6    4
 1.039034671140339e-15    7    5    6    6
 5.625080189791456e-14    7    5    7    1
 -1.362731027252112e-15    7    5    7    3
 0.06077417150025635    7    5    7    5
 -1.53922617764715e-15    7    6    2    1
 4.174056749470423e-14    7    6    2    2
 2.173429713370643e-15    7    6    3    1
 -0.0140290735847344    7    6    3    2
 -4.163311031429669e-14    7    6    3    3
 -5.373873658810099e-14    7    6    4    1
 1.063019087615168e-15    7    6    4    2
 1.581175861814481e-15    7    6    4    3
 -0.02103904389347581    7    6    5    1
 1.366457902065158e-15    7    6    5    2
 0.01519631903443379    7    6    6    2
 -6.632708835870949e-14    7    6    6    3
 1.441043037920683e-15    7    6    6    4
 1.665823349632546e-14    7    6    6    6
 -6.623344313417388e-14    7    6    7    2
 -0.01519631903443397    7    6    7    3
 2.2570351020164e-15    7    6    7    5
 0.01337445070360922    7    6    7    6
 0.2549015450978443    7    7    1    1
 -5.179851377394974e-15    7    7    2    1
 0.2652872014889235    7    7    2    2
 5.185183142791954e-14    7    7    3    2
 0.2428306204879589    7    7    3    3
 -0.01455908046366345    7    7    4    1
 3.639621999193153e-15    7    7    4    2
 0.2479727522968756    7    7    4    4
 7.743640025689537e-14    7    7    5    1
 -3.428612462650851e-15    7    7    5    3
 0.25141437295841    7    7    5    5
 -7.024149048048766e-14    7    7    6    2
 -0.01309081119625213    7    7    6    3
 3.536835112267701e-15    7    7    6    5
 0.230675041926328    7    7    6    6
 -0.00767877407421731    7    7    7    2
 7.990457770520541e-14    7    7    7    3
 -3.919154319634726e-15    7    7    7    4
 1.293960638646482e-15    7    7    7    5
 -1.609310715008487e-14    7    7    7    6
 0.2484848801094094    7    7    7    7
 -0.0006825362080184686    8    1    1    1
 0.0006045703858096886    8    1    2    2
 0.0006045703858091261    8    1    3    3
 0.0192771261395709    8    1    4    4
 -1.103683486975033e-15    8    1    5    3
 -0.02127005752524673    8    1    5    5
 -3.659555626064797e-14    8    1    6    2
 0.01974423297330666    8    1    6    3
 -0.0026349088716733    8    1    6    6
 -0.01974423297330739    8    1    7    2
 -3.658973928771384e-14    8    1    7    3
 -0.002634908871673127    8    1    7    7
 0.02073223316807158    8    1    8    1
 0.002559641317683974    8    2    2    1
 1.068524036513901e-15    8    2    2    2
 -1.19906663604907e-15    8    2    3    3
 -1.357917336825644e-15    8    2    4    1
 -0.020459763105096    8    2    4    2
 1.075517963471838e-15    8    2    4    4
 -0.01737836980065595    8    2    5    3
 -1.158210671132211e-15    8    2    5    5
 -4.646324744746049e-14    8    2    6    1
 2.580505270356316e-14    8    2    6    4
 0.01375570298443799    8    2    6    5
 -0.02506358594043732    8    2    7    1
 -1.43171987381578e-15    8    2    7    2
 0.01405425233576045    8    2    7    4
 -2.520753270434119e-14    8    2    7    5
 2.157840394190427e-15    8    2    8    1
 0.02447370683833748    8    2    8    2
 0.002559641317683102    8    3    3    1
 -1.127489597584792e-15    8    3    3    2
 0.02045976310509515    8    3    4    3
 -1.562584070096461e-15    8    3    5    1
 -0.01737836980065626    8    3    5    2
 0.02506358594043672    8    3    6    1
 1.334598080153715e-15    8    3    6    2
 0.01405425233575958    8    3    6    4
 -2.524286706029078e-14    8    3    6    5
 -4.644086285758943e-14    8    3    7    1
 -2.581081366308382e-14    8    3    7    4
 -0.0137557029844386    8    3    7    5
 0.02447370683833686    8    3    8    3
 -2.50210691451429e-15    8    4    2    1
 -0.03046813165633985    8    4    2    2
 0.0304681316563387    8    4    3    3
 0.03924065579161061    8    4    4    1
 2.824294353201645e-15    8    4    4    2
 -1.388790298683778e-15    8    4    5    3
 4.88175578607366e-14    8    4    6    2
 0.02656471227889944    8    4    6    3
 1.514274485782351e-15    8    4    6    5
 0.0155262683399569    8    4    6    6
 0.02656471227890001    8    4    7    2
 -4.879553182219983e-14    8    4    7    3
 -1.295385661026895e-15    8    4    7    4
 -5.738387456321125e-14    8    4    7    6
 -0.01552626833995811    8    4    7    7
 -1.865506505383487e-15    8    4    8    2
 0.03385809573159888    8    4    8    4
 -2.60376907781167e-15    8    5    3    1
 -0.02760885955254149    8    5    3    2
 -1.497603531109305e-15    8    5    4    3
 -0.04128137743295106    8    5    5    1
 -2.616831628838282e-15    8    5    5    2
 1.286428566908164e-15    8    5    5    3
 0.02950250124261066    8    5    6    2
 -5.422735434865372e-14    8    5    6    3
 -1.380433173976049e-15    8    5    6    4
 7.836818314091978e-14    8    5    6    6
 -5.418005995225268e-14    8    5    7    2
 -0.02950250124261097    8    5    7    3
 -1.340006710869212e-15    8    5    7    5
 0.0212373598458152    8    5    7    6
 -7.824398486326878e-14    8    5    7    7
 2.103497709516325e-15    8    5    8    3
 0.03714469826999947    8    5    8    5
 -1.397725944296596e-13    8    6    2    1
 0.0754157617637    8    6    3    1
 1.503512132362784e-15    8    6    3    2
 -1.712066793537022e-15    8    6    3    3
 1.010225710420731e-13    8    6    4    2
 0.05502681411546126    8    6    4    3
 0.05343622631275654    8    6    5    2
 -9.821807892334456e-14    8    6    5    3
 -1.183889720046214e-15    8    6    5    5
 -0.004815407559723571    8    6    6    1
 -1.058371250776794e-15    8    6    6    2
 0.0502996713879036    8    6    6    4
 2.101221666526351e-13    8    6    6    5
 -1.857612051592967e-13    8    6    7    4
 0.05686928437279221    8    6    7    5
 -7.485408004019626e-05    8    6    8    3
 -3.575973203014495e-15    8    6    8    5
 0.06668985825662482    8    6    8    6
 -0.07541576176370114    8    7    2    1
 -3.158995688955436e-15    8    7    2    2
 -1.397744829360326e-13    8    7    3    1
 -1.283232390512003e-15    8    7    3    3
 0.05502681411546231    8    7    4    2
 -1.011104931266854e-13    8    7    4    3
 -1.913037418364443e-15    8    7    4    4
 -9.811177522349613e-14    8    7    5    2
 -0.05343622631275719    8    7    5    3
 -1.422538020953461e-15    8    7    5    5
 -1.858686186647621e-13    8    7    6    4
 0.05686928437279264    8    7    6    5
 -1.388407334450314e-15    8    7    6    6
 -0.004815407559723504    8    7    7    1
 -0.05029967138790429    8    7    7    4
 -2.098931898821155e-13    8    7    7    5
 1.166046389190673e-15    8    7    7    6
 2.216053860222608e-15    8    7    7    7
 7.485408003941096e-05    8    7    8    2
 3.224612954186387e-15    8    7    8    4
 0.06668985825662618    8    7    8    7
 0.2421959549534585    8    8    1    1
 6.509884359605232e-15    8    8    2    1
 0.2421058564422011    8    8    2    2
 -1.43419492150687e-15    8    8    3    1
 0.2421058564422004    8    8    3    3
 -4.65316234917941e-15    8    8    4    2
 -1.063414457316678e-15    8    8    4    3
 0.2385777837338221    8    8    4    4
 -1.048152949703723e-15    8    8    5    2
 4.819865995339853e-15    8    8    5    3
 0.2399823453141436    8    8    5    5
 2.327154359706004e-15    8    8    6    2
 -0.001444648267448538    8    8    6    3
 -1.203782024761709e-15    8    8    6    4
 -4.955309772763443e-15    8    8    6    5
 0.2319148697779449    8    8    6    6
 0.001444648267447838    8    8    7    2
 2.382972467702142e-15    8    8    7    3
 4.539703886266123e-15    8    8    7    4
 0.2319148697779476    8    8    7    7
 -0.001437801939837781    8    8    8    1
 -1.172771331019241e-15    8    8    8    4
 -2.348794638447239e-15    8    8    8    6
 -7.971265287064354e-15    8    8    8    7
 0.2271831431513434    8    8    8    8
 -0.02750961197678341    9    1    1    1
 -0.02845208660325822    9    1    2    2
 -1.637551891656099e-15    9    1    3    1
 -0.02845208660325717    9    1    3    3
 -0.02600763671170673    9    1    4    4
 -1.987841974966326e-15    9    1    5    2
 -0.02918822004639547    9    1    5    5
 1.186031889104635e-15    9    1    6    1
 -3.362082764480983e-15    9    1    6    2
 0.001955042190134905    9    1    6    3
 -0.02399079961774589    9    1    6    6
 -0.001955042190134181    9    1    7    2
 -3.705314847527111e-15    9    1    7    3
 -1.96043571349938e-15    9    1    7    5
 -0.02399079961774698    9    1    7    7
 0.002083874266790406    9    1    8    1
 1.051910186906702e-15    9    1    8    3
 -1.018158216293221e-15    9    1    8    6
 -0.02174601051068351    9    1    8    8
 0.0184393591571887    9    1    9    1
 -0.02779485319690254    9    2    2    1
 -1.112781859037909e-15    9    2    3    2
 0.01895248504583651    9    2    4    2
 -2.054239120975122e-15    9    2    5    1
 -0.0197523230909386    9    2    5    3
 -4.776163473210368e-15    9    2    6    1
 1.142796150865122e-15    9    2    6    2
 -2.905569773869775e-14    9    2    6    4
 0.01907957348696328    9    2    6    5
 -0.002700080070358948    9    2    7    1
 -1.495014288726088e-15    9    2    7    3
 -0.01569598697081465    9    2    7    4
 -3.523396902491376e-14    9    2    7    5
 1.28672271336527e-15    9    2    7    6
 0.001161810936998207    9    2    8    2
 1.266555501970764e-15    9    2    8    5
 3.564936855857196e-14    9    2    8    6
 0.01932185451307405    9    2    8    7
 -2.389287623326762e-15    9    2    8    8
 0.0172741938368548    9    2    9    2
 -2.20021892337319e-15    9    3    1    1
 -2.104960001362537e-15    9    3    2    2
 -0.02779485319690109    9    3    3    1
 -0.01895248504583493    9    3    4    3
 -0.01975232309093818    9    3    5    2
 -2.246332209005095e-15    9    3    5    5
 0.002700080070359449    9    3    6    1
 1.214420082391168e-15    9    3    6    3
 -0.01569598697081338    9    3    6    4
 -3.483118339461991e-14    9    3    6    5
 -1.115240661948825e-15    9    3    6    6
 -5.029473239509829e-15    9    3    7    1
 2.884155562933683e-14    9    3    7    4
 -0.01907957348696306    9    3    7    5
 -1.95698606024766e-15    9    3    7    7
 0.001161810936999131    9    3    8    3
 -0.01932185451307256    9    3    8    6
 3.595561324839398e-14    9    3    8    7
 2.016279673564454e-15    9    3    9    1
 0.0172741938368533    9    3    9    3
 1.376184065462953e-15    9    4    1    1
 0.01309654471835825    9    4    2    2
 -0.01309654471835549    9    4    3    3
 -0.01661110595360515    9    4    4    1
 1.11711090262914e-15    9    4    4    3
 1.64564271965979e-15    9    4    4    4
 -1.894650333423249e-14    9    4    6    2
 -0.01023900181975959    9    4    6    3
 -0.005251213490691426    9    4    6    6
 -0.01023900181976043    9    4    7    2
 1.894259738336031e-14    9    4    7    3
 1.936862533625415e-14    9    4    7    6
 0.005251213490693608    9    4    7    7
 -0.01186863000016768    9    4    8    4
 1.253308482559279e-15    9    4    8    8
 0.01124050082788472    9    4    9    4
 -2.730818689747235e-15    9    5    2    1
 -0.01480255187503773    9    5    3    2
 -0.02143666602603616    9    5    5    1
 -2.347551243629257e-15    9    5    5    3
 0.0142606761503101    9    5    6    2
 -2.601035749990189e-14    9    5    6    3
 2.21494656768009e-15    9    5    6    5
 3.467388833427791e-14    9    5    6    6
 -1.714311394867737e-15    9    5    7    1
 -2.625177338903341e-14    9    5    7    2
 -0.01426067615031036    9    5    7    3
 0.009491721397318383    9    5    7    6
 -3.522606632138884e-14    9    5    7    7
 0.01636746101095388    9    5    8    5
 1.880561143386908e-15    9    5    8    7
 3.030571481685757e-15    9    5    9    2
 0.01815794500582727    9    5    9    5
 2.952616410929082e-15    9    6    1    1
 -7.239329571779052e-15    9    6    2    1
 2.234009255092591e-15    9    6    2    2
 0.004140653246680785    9    6    3    1
 3.268996374982733e-15    9    6    3    3
 -1.132602520639314e-14    9    6    4    2
 -0.006023318021326203    9    6    4    3
 2.060345162508632e-15    9    6    4    4
 0.01181889972853507    9    6    5    2
 -2.13777391000823e-14    9    6    5    3
 3.002003699892051e-15    9    6    5    5
 -0.01149075102112022    9    6    6    1
 -0.003027296347646782    9    6    6    4
 3.39179498528621e-14    9    6    6    5
 2.399776589011366e-15    9    6    6    6
 1.269449622650935e-15    9    6    7    2
 1.132558528913276e-14    9    6    7    4
 0.009279320355761901    9    6    7    5
 2.030059212392117e-15    9    6    7    7
 1.883288556582583e-14    9    6    8    2
 -0.01021502867053863    9    6    8    3
 0.0035568358377737    9    6    8    6
 1.609236260745943e-15    9    6    8    8
 -2.17919544294659e-15    9    6    9    1
 6.600537271965063e-15    9    6    9    2
 -0.003756773196249367    9    6    9    3
 0.01173258318648355    9    6    9    6
 -0.004140653246680567    9    7    2    1
 -7.479682516751577e-15    9    7    3    1
 -1.43735953125254e-15    9    7    3    2
 -0.006023318021326993    9    7    4    2
 1.12996565920289e-14    9    7    4    3
 -2.164825258443855e-15    9    7    5    1
 -2.163001762647606e-14    9    7    5    2
 -0.01181889972853567    9    7    5    3
 1.512119981285267e-15    9    7    6    2
 1.13348264645288e-14    9    7    6    4
 0.009279320355762174    9    7    6    5
 -0.01149075102112134    9    7    7    1
 -1.431225737322128e-15    9    7    7    3
 0.003027296347647171    9    7    7    4
 -3.402780707234468e-14    9    7    7    5
 0.01021502867053955    9    7    8    2
 1.897135125982651e-14    9    7    8    3
 1.468956475227195e-15    9    7    8    5
 0.00355683583777396    9    7    8    7
 0.003756773196248527    9    7    9    2
 7.132401426058053e-15    9    7    9    3
 2.686864205829881e-15    9    7    9    5
 0.01173258318648446    9    7    9    7
 0.006947083728683363    9    8    1    1
 0.006078761781665451    9    8    2    2
 2.11563266251152e-15    9    8    3    1
 0.006078761781666542    9    8    3    3
 1.197827808063095e-15    9    8    4    3
 -0.003713051027203549    9    8    4    4
 1.701120088471325e-15    9    8    5    2
 1.110326121765851e-15    9    8    5    3
 0.01598283752092874    9    8    5    5
 1.73058769508135e-14    9    8    6    2
 -0.00939877841434715    9    8    6    3
 1.078163087118886e-15    9    8    6    4
 -1.015307724084346e-15    9    8    6    5
 0.005872696731532998    9    8    6    6
 0.009398778414348236    9    8    7    2
 1.753003071052292e-14    9    8    7    3
 1.767490510184072e-15    9    8    7    5
 0.005872696731532672    9    8    7    7
 -0.009454353793808387    9    8    8    1
 -1.458219821022023e-15    9    8    8    2
 1.178085564724509e-15    9    8    8    6
 0.004603030059630191    9    8    8    8
 -0.003644444975691895    9    8    9    1
 -1.941404065276436e-15    9    8    9    3
 1.549382250564135e-15    9    8    9    6
 0.01076268809242872    9    8    9    8
 0.2578161592637742    9    9    1    1
 0.2536550175066367    9    9    2    2
 9.208211702236199e-15    9    9    3    1
 0.2536550175066334    9    9    3    3
 -2.118266073338156e-15    9    9    4    1
 4.36232653670016e-15    9    9    4    3
 0.241922524263999    9    9    4    4
 8.698574615142615e-15    9    9    5    2
 0.2498156318175878    9    9    5    5
 -3.482715095874082e-15    9    9    6    1
 8.786181531006704e-15    9    9    6    2
 -0.005213752590489939    9    9    6    3
 4.461167500088147e-15    9    9    6    4
 0.2325179993347049    9    9    6    6
 0.005213752590487383    9    9    7    2
 1.015817242820621e-14    9    9    7    3
 8.793366545414468e-15    9    9    7    5
 0.2325179993347082    9    9    7    7
 -0.004825948133762237    9    9    8    1
 -2.626405155582507e-15    9    9    8    3
 -1.986173685752971e-15    9    9    8    4
 7.340648890819048e-15    9    9    8    6
 -2.306975820470932e-15    9    9    8    7
 0.2226650412580073    9    9    8    8
 -0.01804382825345519    9    9    9    1
 -4.106101111277929e-15    9    9    9    3
 1.627351608688317e-15    9    9    9    4
 4.184321099669661e-15    9    9    9    6
 0.007906893967416747    9    9    9    8
 0.24560551178123    9    9    9    9
 -1.147461648618012e-14   10    1    2    1
 2.224367518335544e-15   10    1    2    2
 -7.59812797675396e-15   10    1    3    1
 -0.01499938290761332   10    1    3    2
 -1.560133685490399e-15   10    1    3    3
 -2.057640870788653e-15   10    1    4    1
 7.085215447690758e-15   10    1    4    2
 -3.795831115811386e-15   10    1    4    3
 -0.02147585197630338   10    1    5    1
 -6.736383128989519e-15   10    1    5    2
 -7.922200214819736e-15   10    1    5    3
 2.397320259343946e-15   10    1    6    1
 0.01392814883804082   10    1    6    2
 -2.687671267238353e-14   10    1    6    3
 -3.243835035500371e-15   10    1    6    4
 7.45041209650517e-15   10    1    6    5
 3.21969366262739e-14   10    1    6    6
 -1.968374870450817e-15   10    1    7    1
 -2.678352435547248e-14   10    1    7    2
 -0.0139281488380411   10    1    7    3
 -5.477122508354466e-15   10    1    7    4
 -5.484046364420066e-15   10    1    7    5
 0.008835201598530108   10    1    7    6
 -3.156048839787749e-14   10    1    7    7
 2.629928783780262e-15   10    1    8    3
 -1.483839830775119e-15   10    1    8    4
 0.01535393275889326   10    1    8    5
 -5.439910972739085e-15   10    1    8    6
 6.999020655326273e-15   10    1    8    7
 8.927800073091987e-15   10    1    9    2
 5.340079229714551e-15   10    1    9    3
 1.235167036994343e-15   10    1    9    4
 0.01724412281877355   10    1    9    5
 -2.600702221246245e-15   10    1    9    6
 3.640590312085802e-15   10    1    9    7
 0.01735572260118149   10    1   10    1
 -1.66399644282908e-14   10    2    1    1
 2.956452111924944e-15   10    2    2    1
 -1.969750516457587e-14   10    2    2    2
 -0.02210345900535973   10    2    3    1
 -4.415687601779852e-15   10    2    3    2
 -1.190008159274923e-14   10    2    3    3
 4.601854521583795e-15   10    2    4    1
 -2.548421756570727e-15   10    2    4    2
 -0.007743293238707729   10    2    4    3
 -1.376167752564616e-14   10    2    4    4
 -5.924861131892546e-15   10    2    5    1
 -0.02211761831213947   10    2    5    2
 -1.51485542775136e-14   10    2    5    5
 0.01056397839665141   10    2    6    1
 4.145634189445368e-15   10    2    6    2
 3.660986881419189e-15   10    2    6    3
 -0.007844311117133768   10    2    6    4
 -3.558427729251329e-14   10    2    6    5
 -1.054698335439428e-14   10    2    6    6
 -2.019061978076842e-14   10    2    7    1
 1.344641790592667e-15   10    2    7    2
 -3.775400702136491e-15   10    2    7    3
 1.645148716733231e-14   10    2    7    4
 -0.01864140611862801   10    2    7    5
 2.390718962640199e-15   10    2    7    6
 -1.362344462391131e-14   10    2    7    7
 0.008199478122210653   10    2    8    3
 3.053996264566275e-15   10    2    8    4
 5.498501384170117e-15   10    2    8    5
 -0.01413736383937952   10    2    8    6
 2.43780086032747e-14   10    2    8    7
 -9.893977160999676e-15   10    2    8    8
 9.101393700327254e-15   10    2    9    1
 -1.373982847124117e-15   10    2    9    2
 0.01335899859937343   10    2    9    3
 -3.615483073485162e-15   10    2    9    4
 5.248339266784872e-15   10    2    9    5
 -0.01080776209711244   10    2    9    6
 2.055464192614187e-14   10    2    9    7
 -3.136772000803178e-15   10    2    9    8
 -1.536850079234416e-14   10    2    9    9
 1.040011423985178e-14   10    2   10    1
 0.01734500555118331   10    2   10    2
 -1.104154794880135e-14   10    3    1    1
 -0.0221034590053598   10    3    2    1
 -9.922673989685811e-15   10    3    2    2
 -2.351881846465306e-15   10    3    3    1
 -4.108012140597037e-15   10    3    3    2
 -1.247693399643208e-14   10    3    3    3
 -1.778484875574999e-15   10    3    4    1
 0.007743293238707797   10    3    4    2
 -2.142690297256011e-15   10    3    4    3
 -8.568374876589529e-15   10    3    4    4
 -6.218543628151684e-15   10    3    5    1
 -0.02211761831213956   10    3    5    3
 -1.180903772952083e-14   10    3    5    5
 -2.031286832901889e-14   10    3    6    1
 3.975657930123702e-15   10    3    6    2
 -1.612835116818074e-14   10    3    6    4
 0.01864140611862773   10    3    6    5
 -9.059489958100393e-15   10    3    6    6
 -0.01056397839665168   10    3    7    1
 -2.731422193068003e-15   10    3    7    2
 -4.040270692039517e-15   10    3    7    3
 -0.007844311117133931   10    3    7    4
 -3.504654560068383e-14   10    3    7    5
 2.929524474925567e-15   10    3    7    6
 -7.2963072457195e-15   10    3    7    7
 2.412952704364839e-15   10    3    8    1
 0.008199478122210543   10    3    8    2
 4.188128776381059e-15   10    3    8    5
 2.480370936802395e-14   10    3    8    6
 0.01413736383938   10    3    8    7
 -8.775991001405222e-15   10    3    8    8
 5.476766185784805e-15   10    3    9    1
 0.01335899859937364   10    3    9    2
 1.409190821493665e-15   10    3    9    3
 1.544900549888928e-15   10    3    9    4
 7.371048674610173e-15   10    3    9    5
 2.034140319177564e-14   10    3    9    6
 0.01080776209711244   10    3    9    7
 -2.987516703390093e-15   10    3    9    8
 -8.977104097291341e-15   10    3    9    9
 1.19946854162168e-14   10    3   10    1
 0.01734500555118332   10    3   10    3
 -4.291405227095966e-15   10    4    1    1
 5.431203512747151e-15   10    4    2    1
 -4.381660649131394e-15   10    4    2    2
 -1.669081597094135e-15   10    4    3    1
 -4.109308229179939e-15   10    4    3    3
 -5.735208317916109e-15   10    4    4    2
 -1.921182003870458e-15   10    4    4    3
 -4.889019697541133e-15   10    4    4    4
 1.387760400386282e-15   10    4    5    3
 -0.0004054078508127834   10    4    5    4
 -2.627855936389919e-15   10    4    5    5
 -0.0002652800791692613   10    4    6    2
 -1.377794744752247e-15   10    4    6    3
 -1.08501245074633e-15   10    4    6    4
 -1.466217016295033e-15   10    4    6    5
 -2.961454872427069e-15   10    4    6    6
 -2.21649880260419e-15   10    4    7    1
 1.58215259055192e-15   10    4    7    2
 -0.0002652800791694658   10    4    7    3
 3.859991492581291e-15   10    4    7    4
 -3.066465612264016e-15   10    4    7    7
 -1.025641568275478e-15   10    4    8    1
 2.188209881261995e-15   10    4    8    2
 -2.38761161529771e-15   10    4    8    7
 -3.058747078287533e-15   10    4    8    8
 1.498696195099756e-15   10    4    9    1
 -3.953843793561059e-15   10    4    9    2
 1.741106439360556e-15   10    4    9    3
 1.32171900406184e-15   10    4    9    6
 2.390159915594852e-15   10    4    9    7
 -2.982600053378963e-15   10    4    9    9
 0.00195616804616647   10    4   10    4
 -0.0444324674348207   10    5    1    1